BEGIN_BLOCK_DATAGRID_3D
	Hydrogen Density
	BEGIN_DATAGRID_3D
		10 10 10
		0 0 0
		10 0.0 0.0
		0.0 10 0.0
		0.0 0.0 10
			0.0 0.0 0.0 0.0 0.0 0.0 0.0 0.0 0.0 0.0 
			1.817592365285638e-136 7.341987721427962e-147 1.7513548873160746e-167 1.0055248336276373e-190 7.811775557817552e-215 2.53841219211686e-239 5.247126951893069e-264 8.333012782871582e-289 1.12020916064e-313 0.0 
			2.3498839064330796e-160 2.802167819705717e-166 3.8342527264417223e-181 1.2123793583287643e-200 2.1817337232617107e-222 2.6826332340106368e-245 7.191823643359828e-269 7.577379811040089e-293 4.3406315e-317 0.0 
			9.61261121815454e-185 8.144751152383853e-189 6.137670501539373e-200 6.335674687851493e-216 6.276264628097287e-235 8.850801567794053e-256 8.599523431137497e-278 1.4495436981721153e-300 5e-324 0.0 
			2.4548573381146613e-209 1.999814542801292e-212 3.4907739572187337e-221 1.983609561472723e-234 6.5357422230544136e-251 1.228748369679689e-269 6.534472157214456e-290 2.8677354512937e-311 0.0 0.0 
			4.8427967809395414e-234 1.5865076200730293e-236 1.0479036070354039e-243 6.829322197371946e-255 2.999873949413301e-269 5.208132989294784e-286 1.4747192550510899e-304 0.0 0.0 0.0 
			8.114301932470626e-259 6.800276529653445e-261 5.82537715112145e-267 1.3759237489819987e-276 3.3080765295898193e-289 3.057977847273938e-304 3.523e-321 0.0 0.0 0.0 
			1.214697833042771e-283 2.0007563691674854e-285 1.1370805578942038e-290 4.296733851001543e-299 2.68962219474865e-310 1e-323 0.0 0.0 0.0 0.0 
			1.6744260776434375e-308 4.58837672207015e-310 1.111201724e-314 3.75e-322 0.0 0.0 0.0 0.0 0.0 0.0 
			0.0 0.0 0.0 0.0 0.0 0.0 0.0 0.0 0.0 0.0 
			1.2929242036806805e-71 0.0 0.0 0.0 0.0 0.0 0.0 0.0 0.0 0.0 
			5.222641671180653e-82 1.3819008812985328e-90 2.1989235315438294e-109 9.583037730293402e-132 1.9252475702454995e-155 9.758379355949886e-180 2.436404542710207e-204 4.0682713409975334e-229 5.31267849247431e-254 5.920011009271396e-279 
			1.2458069071441943e-102 3.518277650470122e-108 2.1104396771624181e-122 1.961445612215799e-141 6.570545335408518e-163 1.111221437892142e-185 3.414283388302488e-209 3.6960036195437084e-233 2.0356541743883966e-257 7.08766860404483e-282 
			7.152689566864747e-126 7.76226056153764e-130 9.92981841184249e-141 1.683084771178137e-156 2.340150142422445e-175 3.981290295085735e-196 4.1697768451437276e-218 7.015914712350442e-241 3.40042296111852e-264 6.859313194242481e-288 
			5.556820046851487e-150 4.928633779828474e-153 1.0512872536653622e-161 7.396030079754889e-175 2.859186178330749e-191 5.866449435043884e-210 3.1893995430397434e-230 1.3600456940735646e-251 9.398802694731248e-274 1.7181826041128223e-296 
			1.8056714061902606e-174 6.098987097468654e-177 4.340708741766177e-184 3.0719832523809635e-195 1.4322386316025084e-209 2.542669588123482e-226 7.083847501862746e-245 8.985215117860189e-265 1.1277734647876767e-285 2.453852165771787e-307 
			3.7324856582029324e-199 3.1575802873524413e-201 2.7655695445250102e-207 6.671642952229957e-217 1.6146335186638717e-229 1.4689066179862596e-244 1.6258127321780566e-261 5.741011569276292e-280 1.3789228232218373e-299 4.03e-320 
			5.927596375473385e-224 9.767919489735175e-226 5.546315431577781e-231 2.0796557067102982e-239 1.2755741060432152e-250 3.4517602396771686e-264 1.0635932698944753e-279 8.593366621921479e-297 3.656320604e-315 0.0 
			7.968483828752584e-249 2.1760731105174603e-250 5.2112746864342935e-255 1.7195225245359852e-262 1.5038084311569987e-272 7.390976178832521e-285 4.3580770709233435e-299 6.23752153e-315 0.0 0.0 
			9.577608533254308e-274 3.884119223182955e-275 2.906387106946128e-279 5.5560436873364e-286 4.4035140881188425e-295 2.575955849540592e-306 2.04015e-319 0.0 0.0 0.0 
			1.671563897656212e-95 0.0 0.0 0.0 0.0 0.0 0.0 0.0 0.0 0.0 
			1.993291051430708e-101 2.1989235315438286e-107 5.402725573535803e-122 3.314843084644808e-141 9.094180395029084e-163 1.3824515225847552e-185 3.9903969476142765e-209 4.152829666919512e-233 2.2278970183131422e-257 7.615765268326867e-282 
			2.727453222035337e-116 8.644360917657266e-121 7.638193046904784e-133 8.417431550260241e-150 1.2087517447074055e-169 3.481339651142524e-191 9.182971737174881e-214 5.236990753252217e-237 1.0711440069187454e-260 1.0732791485055285e-284 
			8.624126324274986e-136 2.6850228985622908e-139 4.261324722319251e-149 1.2930551032184722e-163 2.473106835892694e-181 3.7393835755930015e-201 2.3032052744527177e-222 1.624792367873622e-244 2.5333412766316023e-267 1.3389678795932568e-290 
			1.5519521267069887e-157 2.3281101811274442e-160 1.9340027915318443e-168 7.816238888747278e-181 1.7814872943596868e-196 1.8401709719368498e-214 4.063461171423748e-234 5.703416366881602e-255 1.079244123530662e-276 4.631817484242063e-299 
			1.908261447448067e-180 8.640322016154685e-183 1.3598983012275488e-189 2.8853268330192844e-200 4.492604911955196e-214 2.595518541824718e-230 2.141489876042073e-248 7.146630876501084e-268 2.0959489964554562e-288 9.5595251492336e-310 
			5.115824116944728e-204 5.171554444108123e-206 7.438207107111635e-212 3.685128439124345e-221 2.0571272180332737e-233 4.4405934069608406e-248 1.1330493442413525e-264 8.693561102894752e-283 4.225316977717134e-302 2.3e-322 
			5.39008522773778e-228 9.970944030273849e-230 7.858759249099111e-235 4.816205525017983e-243 5.3491807409698225e-254 2.7454497175166585e-267 1.6105895222261036e-282 2.4191780285507767e-299 1.840155e-317 0.0 
			3.0876603227914293e-252 9.125466187010562e-254 2.7421286577119883e-258 1.281057514701611e-265 1.7267905976490584e-275 1.3736011343170482e-287 1.335408822587144e-301 3.139223e-317 0.0 0.0 
			1.1646564787936225e-276 4.996703592549249e-278 4.40111530834047e-282 1.0845639824705364e-288 1.1870841607075077e-297 1.003520712065951e-308 1.176e-321 0.0 0.0 0.0 
			6.837824554006242e-120 0.0 0.0 0.0 0.0 0.0 0.0 0.0 0.0 0.0 
			5.79367854916044e-124 1.9405651403844094e-128 6.712557246405731e-140 5.453194658617168e-156 5.060878335688686e-175 6.808241983904039e-196 6.167858372108106e-218 9.440614836938684e-241 4.288959517112614e-264 8.263003699191549e-288 
			4.3659639516642075e-135 1.0740091594249163e-138 1.1252560594874268e-148 2.4789932156377805e-163 3.864229431082336e-181 5.139985033752089e-201 2.914994175479222e-222 1.9458175598173243e-244 2.9195881624502224e-267 1.5011266193363868e-290 
			4.506812037187951e-151 4.4170876734798996e-154 1.2549903154166276e-162 1.335824550035974e-175 8.15951192393019e-192 2.601175850704802e-210 2.1023700188779064e-230 1.2668326342948116e-251 1.1791835163573136e-273 2.7842507855025727e-296 
			4.464551349002093e-170 1.295584853936303e-172 6.182767089731732e-180 2.5788087068223824e-191 6.913923861312515e-206 7.31199514823376e-223 1.28713531483688e-241 1.0979736363808214e-261 9.814215463814802e-283 1.5977321171412215e-304 
			6.295919694390591e-191 4.255151239940008e-193 2.0078066538094085e-199 2.0070801317166646e-209 1.7851550654867556e-222 5.900384273086729e-238 2.5023331482316814e-255 3.680033870678412e-274 4.036062137441152e-294 5.88925974e-315 
			6.117175774167327e-213 7.993544450252139e-215 2.3611452821381668e-220 3.363792030204643e-229 6.516122531361709e-241 5.18883801617321e-255 4.758143864207677e-271 1.2159125616624699e-288 1.7828326179286724e-307 0.0 
			1.0311168595632854e-235 2.2666916223489994e-237 2.9199424757008737e-242 3.7551421665948686e-250 1.0297791800587318e-260 1.4137218117598186e-273 2.2526281331416602e-288 8.933160470814274e-305 1.7e-322 0.0 
			5.267633252256905e-259 1.7567578182093142e-260 7.474145695872569e-265 5.962883559258715e-272 1.570274474210365e-281 2.6450736823934373e-293 5.634631483823951e-307 2.9e-322 0.0 0.0 
			1.1577289324501092e-282 5.421356727039569e-284 6.155557343416258e-288 2.2552431362570797e-294 4.094812664282642e-303 6.182309305e-314 0.0 0.0 0.0 0.0 
			1.7462355859603197e-144 0.0 0.0 0.0 0.0 0.0 0.0 0.0 0.0 0.0 
			1.422545931993982e-147 3.560937905926282e-151 1.6820596058645805e-160 4.622518799846817e-174 1.0130818846403784e-190 1.4588019970871015e-209 6.299588286618262e-230 2.2984772229842995e-251 1.4237239584918407e-273 2.4042802085213482e-296 
			2.4831234027311783e-156 2.6912953693833273e-159 1.2087517447074049e-167 2.8906208908089025e-180 4.560607473560806e-196 3.6781538689962518e-214 6.867249379706546e-234 8.578474243529654e-255 1.4937634927760014e-276 6.031940582592907e-299 
			1.4110186979562168e-169 3.7442402278759146e-172 1.4633768259720089e-179 4.974553832604903e-191 1.132777285437443e-205 1.0632754190467956e-222 1.7187229092932945e-241 1.3789948316614057e-261 1.1786635197675837e-282 1.855933517306392e-304 
			4.649127863098644e-186 2.5934896246793646e-188 7.296971957697277e-195 3.580135618172663e-205 1.458472085098576e-218 2.2402980360658472e-234 4.67716593274915e-252 3.6447333337390854e-271 2.2828170390433084e-291 2.038923729996e-312 
			8.740565474054358e-205 9.117512481794345e-207 1.436778855076661e-212 8.204285640793171e-222 5.46947762711388e-234 1.4365482643651997e-248 4.479140966078359e-265 4.176172325298666e-283 2.4386700671741275e-302 1.6e-322 
			4.648224415826241e-225 8.164266419457301e-227 5.562471997562297e-232 2.7499566548692663e-240 2.3678152534542597e-251 9.287946707260082e-265 4.1797559577751296e-280 4.8858718719002354e-297 2.94942681e-315 0.0 
			2.039931860160656e-246 5.518643812385351e-248 1.2873072911696695e-252 4.087613075085227e-260 3.4183612243388866e-270 1.6043183604867352e-282 9.051680836753458e-297 1.24448300725e-312 0.0 0.0 
			1.505266892510076e-268 5.831573333982537e-270 3.824034541506562e-274 5.960254045639536e-281 3.6525072624692855e-290 1.5982068152232389e-301 9.321645215e-315 0.0 0.0 0.0 
			3.014592674550141e-291 1.5774482448108528e-292 2.4734726351494965e-296 1.5033061490181752e-302 5.2255385126935e-311 1.67e-321 0.0 0.0 0.0 0.0 
			3.444869868057368e-169 0.0 0.0 0.0 0.0 0.0 0.0 0.0 0.0 0.0 
			1.1285446288689148e-171 1.03072881947226e-174 1.4602144207301426e-182 3.551212639752606e-194 8.330772109771001e-209 9.40336386140345e-226 1.9254197629241153e-244 1.968121519416307e-264 2.1143416839252652e-285 4.100458497116596e-307 
			7.454146279094003e-179 2.3363430731682273e-181 1.7869913614568212e-188 1.9736318455445504e-199 1.8880172142491754e-213 7.715572359764338e-230 4.980302392970359e-248 1.3931986714033452e-267 3.5904005192308946e-288 1.48665501144345e-309 
			4.857962727153232e-190 2.876482238199606e-192 9.9915112180693e-199 7.16106367982859e-209 4.8013530641331763e-222 1.276034661134676e-237 4.598114392380286e-255 5.990447525515742e-274 5.999183372240818e-294 8.16934845e-315 
			2.1339271176890523e-204 2.1326776601013762e-206 3.0208275427986764e-212 1.5174646721211032e-221 8.978703018728935e-234 2.1364489357007747e-248 6.163788289488736e-265 5.412714710848637e-283 3.018235250325978e-302 1.9e-322 
			3.7047477346708725e-221 5.877102413377139e-223 3.013895453032943e-228 9.845946459372484e-237 5.215939784425713e-248 1.230075949635203e-261 3.3598635216658365e-277 2.451996958866389e-294 9.5893466479e-313 0.0 
			1.0490252131917663e-239 2.495344012749664e-241 4.0340449383059827e-246 7.356983027808444e-254 3.1204178215536746e-264 6.967012998526278e-277 1.8399613492127295e-291 1.2041905592691892e-307 0.0 0.0 
			1.3982140401080749e-259 4.725459768118599e-261 2.0906687562746462e-265 1.7756869763905334e-272 5.076534383104528e-282 9.419591517181124e-294 2.2309116765473212e-307 1.3e-322 0.0 0.0 
			1.8931742792852575e-280 8.660343537357819e-282 9.191425329231077e-286 3.0336611225553605e-292 4.829176400521563e-301 6.28447421917e-312 0.0 0.0 0.0 0.0 
			4.5310876887363e-302 2.6903108199581943e-303 6.096214706300276e-307 6.6171722446e-313 4.86e-321 0.0 0.0 0.0 0.0 0.0 
			5.772018833725391e-194 0.0 0.0 0.0 0.0 0.0 0.0 0.0 0.0 0.0 
			4.837301413031007e-196 1.0806818533463748e-198 1.7699645084960079e-205 1.3510076978266414e-215 1.510715928881521e-228 8.085505215276462e-244 6.156474217392994e-261 1.6591523435210287e-279 3.2637226585132674e-299 8.2045e-320 
			4.143817534725227e-202 2.8319432135936097e-204 1.859551776777909e-210 4.415612478832425e-220 1.3906179993905747e-232 1.9647381768491465e-247 3.6710798753419855e-264 2.2360619070279323e-282 9.137796232087239e-302 4.4e-322 
			9.787481238667713e-212 1.0943162352395786e-213 2.2354038174089154e-219 2.1023700188779043e-228 2.819135251968324e-240 1.6702133441332634e-254 1.2180848292371684e-270 2.6114649994088453e-288 3.345529401254776e-307 0.0 
			2.353163610512034e-224 3.86743277793669e-226 2.2249887990249195e-231 8.909859561776441e-240 6.252512153652649e-251 2.055945847573751e-264 8.013259942716813e-280 8.355130005793905e-297 4.608479386e-315 0.0 
			2.1752586820744473e-239 5.0534407595477693e-241 7.674758503316969e-246 1.2887448643003554e-253 5.019399041928097e-264 1.0369702147006515e-276 2.5633860882340234e-291 1.5888014592256945e-307 0.0 0.0 
			2.5074410057963772e-256 7.9787905857413525e-258 2.973574699027003e-262 1.9489357267794668e-269 4.05671284600039e-279 5.315437392562069e-291 8.8115166361739e-305 3.5667e-320 0.0 0.0 
			9.433717478228337e-275 3.983624776794027e-276 3.3554903992337914e-280 7.740898103185978e-287 7.8361981030903e-296 6.103539685761432e-307 6.6076e-320 0.0 0.0 0.0 
			2.4606365881686016e-294 1.3368208009270248e-295 2.3392758354143322e-299 1.691764003399948e-305 7.3735670167e-314 5e-324 0.0 0.0 0.0 0.0 
			7.926913504e-315 5.3828203e-316 1.80556e-319 0.0 0.0 0.0 0.0 0.0 0.0 0.0 
			8.640618537439024e-219 0.0 0.0 0.0 0.0 0.0 0.0 0.0 0.0 0.0 
			1.423215889751162e-220 6.104949681084482e-223 6.231840018921159e-229 6.995961797373466e-238 1.8648098955130017e-249 2.7961300403068746e-263 5.613193115404271e-279 3.3012277214773334e-296 1.105030954e-314 0.0 
			8.088496644873993e-226 9.970944030273847e-228 3.449258551675303e-233 9.586813837964787e-242 5.650072157649382e-253 1.7876435972795775e-266 7.27281831130227e-282 8.271194655109153e-299 5.0815175e-317 0.0 
			3.0564340491499356e-234 5.666729055872502e-236 4.853324505469676e-241 3.898857484081828e-249 6.961307257197019e-260 6.6968344647030905e-273 8.037154697258527e-288 2.5503588930350828e-304 4.05e-322 0.0 
			1.913232967283489e-245 4.7739133325132807e-247 9.040115452239e-252 2.2001168615338735e-259 1.4104078293781038e-269 5.226203058908605e-282 2.41857966144762e-296 2.828879242993e-312 0.0 0.0 
			5.371379056479181e-259 1.747581275191789e-260 6.982982801873343e-265 5.167310543752376e-272 1.275928481178858e-281 2.0632673259233532e-293 4.3317218121618916e-307 2.27e-322 0.0 0.0 
			1.7477126284896805e-274 7.274698277563962e-276 5.890982832154827e-280 1.2859447515613629e-286 1.2244059536078585e-295 8.982258349698897e-307 9.209e-320 0.0 0.0 0.0 
			1.5162296356701613e-291 7.92624775926716e-293 1.2411961479323177e-296 7.559767533552144e-303 2.6531793212606e-311 8.65e-322 0.0 0.0 0.0 0.0 
			7.0284033713723e-310 4.526206788789e-311 1.3008685086e-314 2.0593e-320 0.0 0.0 0.0 0.0 0.0 0.0 
			0.0 0.0 0.0 0.0 0.0 0.0 0.0 0.0 0.0 0.0 
			1.191084450180933e-243 0.0 0.0 0.0 0.0 0.0 0.0 0.0 0.0 0.0 
			3.2638909762570497e-245 2.2984772229840603e-247 9.638773660029937e-253 9.163335533252296e-261 3.33023320394629e-271 8.660343537357853e-284 3.1834018049111337e-298 3.1858764987e-314 0.0 0.0 
			7.90441042634607e-250 1.5422037856047874e-251 1.9811879551971362e-256 4.039500293399337e-264 2.762864956238495e-274 1.2937330065311011e-286 8.346305141169669e-301 1.42701094e-316 0.0 0.0 
			2.6637315804005287e-257 7.422301781934354e-259 2.0449970235334188e-263 9.807471138052386e-271 1.6079610615914144e-280 1.8124246226849837e-292 2.7825340660859064e-306 1.1e-321 0.0 0.0 
			2.408427028016119e-267 8.525397002102495e-269 4.4205839299815894e-273 5.081951009474102e-280 2.282817039043307e-289 7.530872209032284e-301 3.4473540003e-314 0.0 0.0 0.0 
			1.240710695672389e-279 5.412714710848639e-281 5.053644556762111e-285 1.398475789108782e-291 1.8385918479082706e-300 1.991172811603e-311 5e-324 0.0 0.0 0.0 
			7.776826747792121e-294 4.125688739164849e-295 6.760507164347423e-299 4.452054505737443e-305 1.74522296253e-313 5e-324 0.0 0.0 0.0 0.0 
			1.19901458597005e-309 7.6492894730534e-311 2.141408325e-314 3.2623e-320 0.0 0.0 0.0 0.0 0.0 0.0 
			0.0 0.0 0.0 0.0 0.0 0.0 0.0 0.0 0.0 0.0 
			0.0 0.0 0.0 0.0 0.0 0.0 0.0 0.0 0.0 0.0 
			1.541638612003289e-268 0.0 0.0 0.0 0.0 0.0 0.0 0.0 0.0 0.0 
			6.283868958668138e-270 6.529204414170528e-272 8.399458739075288e-277 4.500395386742473e-284 1.4336561956785498e-293 4.2815739534672096e-305 2.039997e-318 0.0 0.0 0.0 
			4.775819473353098e-274 1.3439133982520448e-275 4.9684465785562315e-280 5.198206069829204e-287 2.792318717024238e-296 1.3407323092476812e-307 1.0064e-320 0.0 0.0 0.0 
			9.377604352845881e-281 3.645320263261396e-282 2.6315918228510337e-286 5.638107840642698e-293 6.16449477731765e-302 6.0090335082e-313 0.0 0.0 0.0 0.0 
			7.726071303798226e-290 3.6701598609370875e-291 4.467709947238777e-295 1.9482847691275545e-301 4.80147381503266e-310 1.115e-320 0.0 0.0 0.0 0.0 
			4.756554612127821e-301 2.6759837209169953e-302 5.23723558299875e-306 4.63659992918e-312 2.7223e-320 0.0 0.0 0.0 0.0 0.0 
			4.012999962e-314 2.64383374e-315 8.15317e-319 0.0 0.0 0.0 0.0 0.0 0.0 0.0 
			0.0 0.0 0.0 0.0 0.0 0.0 0.0 0.0 0.0 0.0 
			0.0 0.0 0.0 0.0 0.0 0.0 0.0 0.0 0.0 0.0 
			0.0 0.0 0.0 0.0 0.0 0.0 0.0 0.0 0.0 0.0 
	END_DATAGRID_3D
END_BLOCK_DATAGRID_3D
