BEGIN_BLOCK_DATAGRID_3D
	Hydrogen Density
	BEGIN_DATAGRID_3D
		10 10 10
		0 0 0
		10 0.0 0.0
		0.0 10 0.0
		0.0 0.0 10
			0.0 0.0 0.0 0.0 0.0 0.0 0.0 0.0 0.0 0.0 
			5.09043024266e-101 2.02767085241e-101 3.26457543565e-102 4.16814491776e-103 4.927752045e-104 5.63372283728e-105 6.32974514504e-106 7.04002068132e-107 7.77996545277e-108 8.56074514025e-109 
			8.82623780393e-101 5.22332069705e-101 1.40043049803e-101 2.49034741239e-102 3.63011230018e-103 4.77262120451e-104 5.91769072138e-105 7.07860452499e-106 8.27112029527e-107 9.51046125699e-108 
			4.84218983795e-101 3.37619738338e-101 1.26073837752e-101 3.06034730565e-102 5.68648783752e-103 8.97208537634e-104 1.27719869477e-104 1.69966958032e-105 2.16038016021e-106 2.65831701415e-107 
			1.65843291908e-101 1.26150452352e-101 5.80817968028e-102 1.79721097087e-102 4.17512787105e-103 7.95143430126e-104 1.32028149061e-104 1.99167115591e-105 2.80534825321e-106 3.7581315588e-107 
			4.38772209685e-102 3.5210767733e-102 1.86430515801e-102 6.92290538298e-103 1.94126813995e-103 4.40001292583e-104 8.51275993818e-105 1.46433062496e-105 2.30679513848e-106 3.39963710763e-107 
			9.85973513644e-103 8.20334970797e-103 4.79332948432e-103 2.04351791163e-103 6.6839250462e-104 1.76520590078e-104 3.93842931772e-105 7.70347361816e-106 1.35978377198e-106 2.21471672968e-107 
			1.97949112265e-103 1.69030896559e-103 1.06223309153e-103 5.03815637326e-104 1.86796970521e-104 5.62537252885e-105 1.42716359238e-105 3.14959225163e-106 6.21017750903e-107 1.11795828467e-107 
			3.65950628747e-104 3.18667384946e-104 2.11740679559e-104 1.0924589057e-104 4.48855720513e-105 1.51178126195e-105 4.29758821762e-106 1.05942886618e-106 2.31934973268e-107 4.60133891652e-108 
			6.35234005474e-105 5.61670488652e-105 3.89988351919e-105 2.15323678146e-105 9.63168013957e-106 3.5688030501e-106 1.1212003444e-106 3.05494556672e-107 7.37045523225e-108 1.6036901045e-108 
			3.62102118912e-36 0.0 0.0 0.0 0.0 0.0 0.0 0.0 0.0 0.0 
			1.44236120939e-36 1.7793840089e-37 5.78082970127e-39 2.10406498079e-40 9.29960344336e-42 4.77729982078e-43 2.74320086916e-44 1.71319008357e-45 1.14183431543e-46 8.01370316895e-48 
			2.32221958901e-37 9.24932752204e-38 1.063098187e-38 7.74629365712e-40 5.050697742e-41 3.28995384547e-42 2.20943935454e-43 1.53992286153e-44 1.11254848233e-45 8.30335322155e-47 
			2.96496373529e-38 1.70429263444e-38 3.92156116391e-39 5.18921388686e-40 5.19370232343e-41 4.56935933445e-42 3.80514357507e-43 3.10809316899e-44 2.53323221535e-45 2.07717776433e-46 
			3.50530185448e-39 2.3806984815e-39 8.0811163872e-40 1.64146641333e-40 2.38670711189e-41 2.83169699635e-42 2.97945973415e-43 2.92309584751e-44 2.75486466173e-45 2.53883949583e-46 
			4.00748636067e-40 2.98581238799e-40 1.28513822089e-40 3.5257402272e-41 6.91332274499e-42 1.07074380223e-42 1.41238900651e-43 1.6724197654e-44 1.84203692568e-45 1.93258269054e-46 
			4.50259412256e-41 3.55518832643e-41 1.78964587718e-41 6.0882297201e-42 1.50835149041e-42 2.92872984389e-43 4.74309415452e-44 6.72571610945e-45 8.65787926289e-46 1.03873854485e-46 
			5.00784076074e-42 4.11336939065e-42 2.31084674408e-42 9.21300209723e-43 2.74154419135e-43 6.42476777075e-44 1.24602194281e-44 2.08572777029e-45 3.11694586629e-46 4.26947193629e-47 
			5.53419228085e-43 4.67695335601e-43 2.84812411478e-43 1.2810023647e-43 4.40778345876e-44 1.20719731962e-44 2.73631739667e-45 5.31737204012e-46 9.12964963317e-47 1.41977688337e-47 
			6.08959126632e-44 5.25779064915e-44 3.40489378041e-44 1.68251398911e-44 6.50676794224e-45 2.02874800522e-45 5.25861388333e-46 1.16668077359e-46 2.27420803998e-47 3.98393881605e-48 
			6.27844653295e-36 0.0 0.0 0.0 0.0 0.0 0.0 0.0 0.0 0.0 
			3.71555134241e-36 5.78082970127e-37 2.72153135872e-38 1.30912362805e-39 6.99058511003e-41 4.09297512432e-42 2.58225198485e-43 1.73025732721e-44 1.21761519108e-45 8.9220295993e-47 
			9.96180728454e-37 4.35445017395e-37 6.06442215576e-38 5.30980635945e-39 4.00046456262e-40 2.90605003874e-41 2.11986577952e-42 1.57500385028e-43 1.19678674302e-44 9.30267181168e-46 
			1.77148105733e-37 1.06039013872e-37 2.68808946947e-38 3.97443186911e-39 4.39985681843e-40 4.21025330353e-41 3.75334035379e-42 3.23953738083e-43 2.76172968919e-44 2.35000831672e-45 
			2.58224019016e-38 1.78958978817e-38 6.40074330019e-39 1.3905720315e-39 2.16469549907e-40 2.73301652392e-41 3.03490222015e-42 3.11709488917e-43 3.0537454614e-44 2.90819151521e-45 
			3.39495124879e-39 2.5581094527e-39 1.13517579638e-39 3.24865224038e-40 6.67240362285e-41 1.08141082951e-41 1.48728628886e-42 1.82786548189e-43 2.08004942771e-44 2.24530873467e-45 
			4.20948377078e-40 3.34659857237e-40 1.71709128141e-40 6.00534456606e-41 1.53641924895e-41 3.08403684858e-42 5.15766585405e-43 7.53516416746e-44 9.96641977358e-45 1.2251685505e-45 
			5.03528695071e-41 4.15434784263e-41 2.36349015282e-41 9.6026287054e-42 2.92349407379e-42 7.02192803525e-43 1.39598218874e-43 2.39314667959e-44 3.65716888578e-45 5.11362039747e-46 
			5.88356983972e-42 4.98735182267e-42 3.06377406214e-42 1.39654874159e-42 4.88599273824e-43 1.36318119295e-43 3.14988081733e-44 6.23896866145e-45 1.09105919465e-45 1.72639857949e-46 
			6.76516131019e-43 5.8537436201e-43 3.81467685978e-43 1.90350673654e-43 7.45337677005e-44 2.3570352973e-44 6.20241578691e-45 1.39735374543e-45 2.76535670899e-46 4.9154248284e-47 
			3.44443812588e-36 0.0 0.0 0.0 0.0 0.0 0.0 0.0 0.0 0.0 
			2.40162062559e-36 4.26073158611e-37 2.65097534681e-38 1.68130529934e-39 1.12320551977e-40 7.8138748382e-42 5.62849944449e-43 4.1822501682e-44 3.19517029009e-45 2.50225161973e-46 
			8.96812285274e-37 4.24156055489e-37 7.09823625532e-38 7.61962086148e-39 6.87477627879e-40 5.78722094992e-41 4.75032138526e-42 3.87960261627e-43 3.18279790521e-44 2.63461140006e-45 
			2.17694417006e-37 1.36185729247e-37 3.85743306113e-38 6.53964572467e-39 8.27132289093e-40 8.89950289107e-41 8.75942771901e-42 8.21049667144e-43 7.49743071839e-44 6.75775797572e-45 
			4.04502015935e-38 2.87540613062e-38 1.09996420461e-38 2.61414649392e-39 4.47411469294e-40 6.17742926917e-41 7.4299388888e-42 8.17963594263e-43 8.50649392342e-44 8.52728218842e-45 
			6.38219358868e-39 4.88367177388e-39 2.26063318356e-39 6.86690037891e-40 1.50816144267e-40 2.61390635512e-41 3.82859120777e-42 4.98152774465e-43 5.96380963096e-44 6.73210804081e-45 
			9.08521149691e-40 7.29453528006e-40 3.84776032206e-40 1.40150843504e-40 3.76140656245e-41 7.93896672842e-42 1.394650235e-42 2.13403523405e-43 2.94504641434e-44 3.7621880832e-45 
			1.2090411363e-40 1.00415826538e-40 5.82182867605e-41 2.43375339606e-41 7.6716038665e-42 1.91370369838e-42 3.95356373221e-43 7.03549771193e-44 1.11374304741e-44 1.6090619766e-45 
			1.53676250607e-41 1.30874175082e-41 8.14796263733e-42 3.79129336081e-42 1.36103902775e-42 3.90844227975e-43 9.30780101324e-44 1.89999646905e-44 3.42107452107e-45 5.5651532613e-46 
			1.89096437369e-42 1.64172728771e-42 1.08035533724e-42 5.47378396034e-43 2.18544915774e-43 7.06709773692e-44 1.90460771712e-44 4.39694111974e-45 8.91429945005e-46 1.62199640281e-46 
			1.17970789392e-36 0.0 0.0 0.0 0.0 0.0 0.0 0.0 0.0 0.0 
			8.97357274746e-37 1.72005465288e-37 1.29297862195e-38 1.02591650833e-39 8.4567061681e-41 7.04154238293e-42 5.88492265971e-43 4.94003198229e-44 4.17304942841e-45 3.55263843192e-46 
			4.13158430426e-37 2.06876579512e-37 4.00046456262e-38 5.1426480455e-39 5.54162047762e-40 5.46278332546e-41 5.12898475205e-42 4.68840366918e-43 4.22663731682e-44 3.78729051442e-45 
			1.27842612444e-37 8.30992371749e-38 2.60346557303e-38 5.04272086019e-39 7.33038951291e-40 8.98292266564e-41 9.92126160756e-42 1.02731753441e-42 1.02160932839e-43 9.9053331001e-45 
			2.9699309818e-38 2.16491677903e-38 8.86659276419e-39 2.31676508062e-39 4.40259694534e-40 6.7376060009e-41 8.91238981639e-42 1.06830065367e-42 1.19737710319e-43 1.28151853483e-44 
			5.65616474762e-39 4.40096398933e-39 2.13389973651e-39 6.93126748892e-40 1.64492334006e-40 3.08751998893e-41 4.88294913211e-42 6.82110713845e-43 8.70862314865e-44 1.04129304128e-44 
			9.39167619472e-40 7.62685976698e-40 4.15447764916e-40 1.58740185721e-40 4.51189734455e-41 1.01252833203e-41 1.89095062755e-42 3.06770531668e-43 4.47035663072e-44 6.00261205153e-45 
			1.4167532239e-40 1.18610167895e-40 7.03553575607e-41 3.04517209892e-41 1.00194916776e-41 2.62039651831e-42 5.68330282819e-43 1.06089880594e-43 1.7578804683e-44 2.65058403638e-45 
			1.99555341759e-41 1.70928104588e-41 1.08201915311e-41 5.16606396184e-42 1.9158033651e-42 5.7072832667e-43 1.41285345366e-43 2.99886647153e-44 5.60949421861e-45 9.46372796658e-46 
			2.67330527229e-42 2.33088607519e-42 1.55302581657e-42 8.02331981108e-43 3.28439183868e-43 1.09310778301e-43 3.03882235109e-44 7.24301618603e-45 1.51590623019e-45 2.84501958993e-46 
			3.12115753037e-37 0.0 0.0 0.0 0.0 0.0 0.0 0.0 0.0 0.0 
			2.50467897542e-37 5.0460229357e-38 4.32320497507e-39 4.07575570264e-40 4.02120952745e-41 3.95985133961e-42 3.83893315793e-43 3.66326825412e-44 3.45343774872e-45 3.22940200935e-46 
			1.32615283156e-37 6.91712796011e-38 1.49169194493e-38 2.2221550236e-39 2.8040776225e-40 3.21465763825e-41 3.45887017553e-42 3.56332907756e-43 3.56316425539e-44 3.49180469795e-45 
			4.92453209003e-38 3.30136211914e-38 1.1249659807e-38 2.45004223396e-39 4.0563510162e-40 5.65291166766e-41 7.03515451066e-42 8.10905051418e-43 8.8645779859e-44 9.33851431439e-45 
			1.38089959659e-38 1.02942963903e-38 4.48652419601e-39 1.28200723475e-39 2.70030872524e-40 4.59179058437e-41 6.7194725298e-42 8.84080063672e-43 1.07782818688e-43 1.24348693929e-44 
			3.12990047546e-39 2.47490708726e-39 1.25572563994e-39 4.36181455838e-40 1.12104262314e-40 2.28954265883e-41 3.93615096234e-42 5.95133243439e-43 8.17474111679e-44 1.04476114324e-44 
			6.05545752414e-40 4.97525737268e-40 2.80168484218e-40 1.12562472171e-40 3.40173296821e-41 8.16200263552e-42 1.63165604998e-42 2.82836180534e-43 4.38815319185e-44 6.24544142609e-45 
			1.04163537621e-40 8.79550707815e-41 5.34722069701e-41 2.40368275118e-41 8.29170403468e-42 2.28626386799e-42 5.23988942486e-43 1.03344157092e-43 1.80592943303e-44 2.86372703523e-45 
			1.64091317967e-41 1.41452810188e-41 9.1217004938e-42 4.48263104077e-42 1.72452509901e-42 5.3573983383e-43 1.38687310755e-43 3.08083588408e-44 6.02748952276e-45 1.06190191656e-45 
			2.41829421389e-42 2.11881065834e-42 1.43185816395e-42 7.56419659465e-43 3.18692101901e-43 1.09674845773e-43 3.16175472196e-44 7.82545317706e-45 1.70096154164e-45 3.31300183175e-46 
			7.01361341699e-38 0.0 0.0 0.0 0.0 0.0 0.0 0.0 0.0 0.0 
			5.83536198284e-38 1.21676320472e-38 1.14537336139e-39 1.23286651832e-40 1.41127419726e-41 1.61210114632e-42 1.79607013127e-43 1.94373195563e-44 2.0492021924e-45 2.11470730823e-46 
			3.40968185433e-38 1.83259737823e-38 4.29272820353e-39 7.1957531043e-40 1.03861941229e-40 1.36453045346e-41 1.67108373671e-42 1.93811182307e-43 2.15536759809e-44 2.32129166613e-45 
			1.45363383951e-38 9.9862187984e-39 3.64285000905e-39 8.75942771901e-40 1.62733493518e-40 2.55544076094e-41 3.5703046016e-42 4.58335450832e-43 5.52645226937e-44 6.3580978606e-45 
			4.75453607358e-39 3.61286194498e-39 1.66179105966e-39 5.14318201736e-40 1.19142289254e-40 2.24129561184e-41 3.62525445756e-42 5.24595761254e-43 6.98493223549e-44 8.73310196338e-45 
			1.25565967221e-39 1.00756321645e-39 5.33019708381e-40 1.9717907106e-40 5.47191311484e-41 1.21483247227e-41 2.2731805867e-42 3.73172279832e-43 5.53989798239e-44 7.60892200799e-45 
			2.80155808674e-40 2.32770689012e-40 1.35357782674e-40 5.71248736255e-41 1.83528506914e-41 4.71366726458e-42 1.01128480934e-42 1.88024624957e-43 3.12068545764e-44 4.73319849444e-45 
			5.47978066125e-41 4.66690042547e-41 2.90837905449e-41 1.35859681166e-41 4.92013446395e-42 1.4335786302e-42 3.48338830649e-43 7.2886661413e-44 1.34970053013e-44 2.26261949361e-45 
			9.67267129938e-42 8.39353218007e-42 5.51774105112e-42 2.79461092535e-42 1.11758915768e-42 3.63062754174e-43 9.86290712537e-44 2.30252951745e-44 4.73346604543e-45 8.75148558079e-46 
			1.57541422312e-42 1.38745946493e-42 9.51874663844e-43 5.15005926709e-43 2.23819851491e-43 7.9875419671e-44 2.39618173781e-44 6.18285984907e-45 1.40181877186e-45 2.84662576747e-46 
			1.4080890921e-38 0.0 0.0 0.0 0.0 0.0 0.0 0.0 0.0 0.0 
			1.20238256665e-38 2.57085586916e-39 2.59646740165e-40 3.09925390551e-41 4.00796685414e-42 5.20444205808e-43 6.57597409554e-44 8.01253180233e-45 9.42018503353e-46 1.07308262527e-46 
			7.55607748041e-39 4.15434784263e-39 1.03735059989e-39 1.91143449497e-40 3.08794061544e-41 4.57218524626e-42 6.30373207103e-43 8.18219320426e-44 1.00991326779e-44 1.19612712411e-45 
			3.58383675093e-39 2.51039566346e-39 9.67663713078e-40 2.52689704456e-40 5.18600421376e-41 9.06526077193e-42 1.41059249211e-42 2.00858858577e-43 2.66867798319e-44 3.35717869193e-45 
			1.32875956663e-39 1.02603951466e-39 4.9407049847e-40 1.63903343052e-40 4.134018783e-41 8.53616379194e-42 1.51856001974e-42 2.41156736858e-43 3.50724620308e-44 4.76085346102e-45 
			4.00154646123e-40 3.2527762863e-40 1.78600986182e-40 6.99479997834e-41 2.08402436327e-41 5.00783237646e-42 1.01742007779e-42 1.81248591071e-43 2.91123758747e-44 4.30731460442e-45 
			1.01519701911e-40 8.52246242782e-41 5.10602297754e-41 2.25694798738e-41 7.68771009992e-42 2.10972227331e-42 4.85483806219e-43 9.68862970533e-44 1.72343260692e-44 2.79335739952e-45 
			2.24042757421e-41 1.92380888574e-41 1.22784036771e-41 5.95385332646e-42 2.26178642655e-42 6.9628458746e-43 1.79493826562e-43 3.99080402885e-44 7.84972460664e-45 1.39535576356e-45 
			4.4175410086e-42 3.85850778973e-42 2.58537796553e-42 1.34949444681e-42 5.61159392492e-43 1.90790866532e-43 5.44689811569e-44 1.33912836272e-44 2.90039405459e-45 5.64513754695e-46 
			7.95247247158e-43 7.04049510441e-43 4.90486878832e-43 2.71931474046e-43 1.22015467023e-43 4.52164657914e-44 1.41413718351e-44 3.81296508317e-45 9.04241880995e-46 1.92039932191e-46 
			2.60314927756e-39 0.0 0.0 0.0 0.0 0.0 0.0 0.0 0.0 0.0 
			2.26680515823e-39 4.94003198229e-40 5.26789036269e-41 6.8264616015e-42 9.76118136196e-43 1.41452810188e-43 1.99877092525e-44 2.71590094321e-45 3.54035928023e-46 4.43944214348e-47 
			1.50619387897e-39 8.42862458031e-40 2.2135767599e-40 4.40367351713e-41 7.81758838119e-42 1.28391893333e-42 1.96867551083e-43 2.83607656953e-44 3.8658983229e-45 5.02387960328e-46 
			7.77108546277e-40 5.52943389722e-40 2.22935971805e-40 6.23574145671e-41 1.39370396441e-41 2.67809440293e-42 4.59644494481e-43 7.21196638328e-44 1.05180868743e-44 1.44453515208e-45 
			3.19288546814e-40 2.49886242866e-40 1.25081414099e-40 4.40479277642e-41 1.19737710319e-41 2.68931533346e-42 5.22504975465e-43 9.0633197574e-44 1.43603051996e-44 2.11472930702e-45 
			1.07538886143e-40 8.84080063672e-41 5.01530833333e-41 2.06643086646e-41 6.56571126334e-42 1.69743808951e-42 3.72715159244e-43 7.18392867126e-44 1.24674142584e-44 1.98704946562e-45 
			3.05704179338e-41 2.59040711912e-41 1.59462716377e-41 7.35431191169e-42 2.64518143829e-42 7.72862154209e-43 1.90256696091e-43 4.06934247866e-44 7.75531076883e-45 1.34414481946e-45 
			7.53612993388e-42 6.52087816465e-42 4.25588740215e-42 2.1377692946e-42 8.50040263184e-43 2.75977803835e-43 7.53895932967e-44 1.78043836563e-44 3.72151743993e-45 7.02301875294e-46 
			1.64984375125e-42 1.45013116118e-42 9.89669970662e-43 5.31877578237e-43 2.29764883194e-43 8.17064460839e-44 2.45106118126e-44 6.34874445396e-45 1.45020016319e-45 2.97605945465e-46 
			3.27311148976e-43 2.91271799034e-43 2.06010462982e-43 1.17007347319e-43 5.41981991537e-44 2.08592504703e-44 6.80473314852e-45 1.91911811904e-45 4.76707179735e-46 1.06074952254e-46 
			4.5186667614e-40 0.0 0.0 0.0 0.0 0.0 0.0 0.0 0.0 0.0 
			3.99538082983e-40 8.83834608122e-41 9.84014302539e-42 1.36283633118e-42 2.11841451794e-43 3.37204328205e-44 5.25822976252e-45 7.88676202949e-46 1.13172127907e-46 1.5549448288e-47 
			2.77413895976e-40 1.57442288406e-40 4.30641254873e-41 9.12331631123e-42 1.75322055073e-42 3.14906642099e-43 5.30655435669e-44 8.407005446e-45 1.25738807972e-45 1.78547279165e-46 
			1.53168114269e-40 1.10389742825e-40 4.61867888256e-41 1.36844599008e-41 3.29006258003e-42 6.86902337128e-43 1.28751481677e-43 2.20892701913e-44 3.51704158261e-45 5.25526834511e-46 
			6.85138902011e-41 5.42314116593e-41 2.80515288117e-41 1.03982224752e-41 3.01785574317e-42 7.30645987501e-43 1.53840381524e-43 2.89720647441e-44 4.97998882653e-45 7.9354547899e-46 
			2.53862853397e-41 2.10752705128e-41 1.2301040707e-41 5.30017235439e-42 1.78380368042e-42 4.92922626843e-43 1.16316206366e-43 2.41508690088e-44 4.51492443038e-45 7.73820043365e-46 
			7.97553450452e-42 6.81466577222e-42 4.29830902892e-42 2.06002370683e-42 7.78816931464e-43 2.41193285521e-43 6.32741740141e-44 1.44623296123e-44 2.94732396784e-45 5.4574363826e-46 
			2.17310170288e-42 1.89361156328e-42 1.26157625474e-42 6.54769601597e-43 2.71726279104e-43 9.27779783842e-44 2.67932510797e-44 6.70961161033e-45 1.48889384822e-45 2.98218697066e-46 
			5.2428917198e-43 4.63553035906e-43 3.21891348409e-43 1.77849411387e-43 7.96798212245e-44 2.95890087469e-44 9.31499920701e-45 2.53998717297e-45 6.11741238643e-46 1.32405757287e-46 
			1.14076719892e-43 1.02019930217e-43 7.32155436625e-44 4.25676735954e-44 2.03377026861e-44 8.12325328723e-45 2.76282716869e-45 8.14915814848e-46 2.12088421279e-46 4.94809237988e-47 
	END_DATAGRID_3D
END_BLOCK_DATAGRID_3D
