BEGIN_BLOCK_DATAGRID_3D
	Hydrogen Density
	BEGIN_DATAGRID_3D
		10 10 10
		0 0 0
		10 0.0 0.0
		0.0 10 0.0
		0.0 0.0 10
			0.0 0.0 0.0 0.0 0.0 0.0 0.0 0.0 0.0 0.0 
			1.81759236529e-136 7.34198772143e-147 1.75135488732e-167 1.00552483363e-190 7.81177555782e-215 2.53841219212e-239 5.24712695189e-264 8.33301278287e-289 1.12020916064e-313 0.0 
			2.34988390643e-160 2.80216781971e-166 3.83425272644e-181 1.21237935833e-200 2.18173372326e-222 2.68263323401e-245 7.19182364336e-269 7.57737981104e-293 4.3406315179e-317 0.0 
			9.61261121815e-185 8.14475115238e-189 6.13767050154e-200 6.33567468785e-216 6.2762646281e-235 8.85080156779e-256 8.59952343114e-278 1.44954369817e-300 4.94065645841e-324 0.0 
			2.45485733811e-209 1.9998145428e-212 3.49077395722e-221 1.98360956147e-234 6.53574222305e-251 1.22874836968e-269 6.53447215721e-290 2.86773545129e-311 0.0 0.0 
			4.84279678094e-234 1.58650762007e-236 1.04790360704e-243 6.82932219737e-255 2.99987394941e-269 5.20813298929e-286 1.47471925505e-304 0.0 0.0 0.0 
			8.11430193247e-259 6.80027652965e-261 5.82537715112e-267 1.37592374898e-276 3.30807652959e-289 3.05797784727e-304 3.52268805485e-321 0.0 0.0 0.0 
			1.21469783304e-283 2.00075636917e-285 1.13708055789e-290 4.296733851e-299 2.68962219475e-310 9.88131291682e-324 0.0 0.0 0.0 0.0 
			1.67442607764e-308 4.58837672207e-310 1.11120172392e-314 3.75489890839e-322 0.0 0.0 0.0 0.0 0.0 0.0 
			0.0 0.0 0.0 0.0 0.0 0.0 0.0 0.0 0.0 0.0 
			1.29292420368e-71 0.0 0.0 0.0 0.0 0.0 0.0 0.0 0.0 0.0 
			5.22264167118e-82 1.3819008813e-90 2.19892353154e-109 9.58303773029e-132 1.92524757025e-155 9.75837935595e-180 2.43640454271e-204 4.068271341e-229 5.31267849247e-254 5.92001100927e-279 
			1.24580690714e-102 3.51827765047e-108 2.11043967716e-122 1.96144561222e-141 6.57054533541e-163 1.11122143789e-185 3.4142833883e-209 3.69600361954e-233 2.03565417439e-257 7.08766860404e-282 
			7.15268956686e-126 7.76226056154e-130 9.92981841184e-141 1.68308477118e-156 2.34015014242e-175 3.98129029509e-196 4.16977684514e-218 7.01591471235e-241 3.40042296112e-264 6.85931319424e-288 
			5.55682004685e-150 4.92863377983e-153 1.05128725367e-161 7.39603007975e-175 2.85918617833e-191 5.86644943504e-210 3.18939954304e-230 1.36004569407e-251 9.39880269473e-274 1.71818260411e-296 
			1.80567140619e-174 6.09898709747e-177 4.34070874177e-184 3.07198325238e-195 1.4322386316e-209 2.54266958812e-226 7.08384750186e-245 8.98521511786e-265 1.12777346479e-285 2.45385216577e-307 
			3.7324856582e-199 3.15758028735e-201 2.76556954453e-207 6.67164295223e-217 1.61463351866e-229 1.46890661799e-244 1.62581273218e-261 5.74101156928e-280 1.37892282322e-299 4.03009347313e-320 
			5.92759637547e-224 9.76791948974e-226 5.54631543158e-231 2.07965570671e-239 1.27557410604e-250 3.45176023968e-264 1.06359326989e-279 8.59336662192e-297 3.65632060369e-315 0.0 
			7.96848382875e-249 2.17607311052e-250 5.21127468643e-255 1.71952252454e-262 1.50380843116e-272 7.39097617883e-285 4.35807707092e-299 6.23752153136e-315 0.0 0.0 
			9.57760853325e-274 3.88411922318e-275 2.90638710695e-279 5.55604368734e-286 4.40351408812e-295 2.57595584954e-306 2.04014527137e-319 0.0 0.0 0.0 
			1.67156389766e-95 0.0 0.0 0.0 0.0 0.0 0.0 0.0 0.0 0.0 
			1.99329105143e-101 2.19892353154e-107 5.40272557354e-122 3.31484308464e-141 9.09418039503e-163 1.38245152258e-185 3.99039694761e-209 4.15282966692e-233 2.22789701831e-257 7.61576526833e-282 
			2.72745322204e-116 8.64436091766e-121 7.6381930469e-133 8.41743155026e-150 1.20875174471e-169 3.48133965114e-191 9.18297173717e-214 5.23699075325e-237 1.07114400692e-260 1.07327914851e-284 
			8.62412632427e-136 2.68502289856e-139 4.26132472232e-149 1.29305510322e-163 2.47310683589e-181 3.73938357559e-201 2.30320527445e-222 1.62479236787e-244 2.53334127663e-267 1.33896787959e-290 
			1.55195212671e-157 2.32811018113e-160 1.93400279153e-168 7.81623888875e-181 1.78148729436e-196 1.84017097194e-214 4.06346117142e-234 5.70341636688e-255 1.07924412353e-276 4.63181748424e-299 
			1.90826144745e-180 8.64032201615e-183 1.35989830123e-189 2.88532683302e-200 4.49260491196e-214 2.59551854182e-230 2.14148987604e-248 7.1466308765e-268 2.09594899646e-288 9.55952514923e-310 
			5.11582411694e-204 5.17155444411e-206 7.43820710711e-212 3.68512843912e-221 2.05712721803e-233 4.44059340696e-248 1.13304934424e-264 8.69356110289e-283 4.22531697772e-302 2.32210853545e-322 
			5.39008522774e-228 9.97094403027e-230 7.8587592491e-235 4.81620552502e-243 5.34918074097e-254 2.74544971752e-267 1.61058952223e-282 2.41917802855e-299 1.84015490892e-317 0.0 
			3.08766032279e-252 9.12546618701e-254 2.74212865771e-258 1.2810575147e-265 1.72679059765e-275 1.37360113432e-287 1.33540882259e-301 3.13922295635e-317 0.0 0.0 
			1.16465647879e-276 4.99670359255e-278 4.40111530834e-282 1.08456398247e-288 1.18708416071e-297 1.00352071207e-308 1.1758762371e-321 0.0 0.0 0.0 
			6.83782455401e-120 0.0 0.0 0.0 0.0 0.0 0.0 0.0 0.0 0.0 
			5.79367854916e-124 1.94056514038e-128 6.71255724641e-140 5.45319465862e-156 5.06087833569e-175 6.8082419839e-196 6.16785837211e-218 9.44061483694e-241 4.28895951711e-264 8.26300369919e-288 
			4.36596395166e-135 1.07400915942e-138 1.12525605949e-148 2.47899321564e-163 3.86422943108e-181 5.13998503375e-201 2.91499417548e-222 1.94581755982e-244 2.91958816245e-267 1.50112661934e-290 
			4.50681203719e-151 4.41708767348e-154 1.25499031542e-162 1.33582455004e-175 8.15951192393e-192 2.6011758507e-210 2.10237001888e-230 1.26683263429e-251 1.17918351636e-273 2.7842507855e-296 
			4.464551349e-170 1.29558485394e-172 6.18276708973e-180 2.57880870682e-191 6.91392386131e-206 7.31199514823e-223 1.28713531484e-241 1.09797363638e-261 9.81421546381e-283 1.59773211714e-304 
			6.29591969439e-191 4.25515123994e-193 2.00780665381e-199 2.00708013172e-209 1.78515506549e-222 5.90038427309e-238 2.50233314823e-255 3.68003387068e-274 4.03606213744e-294 5.88925974154e-315 
			6.11717577417e-213 7.99354445025e-215 2.36114528214e-220 3.3637920302e-229 6.51612253136e-241 5.18883801617e-255 4.75814386421e-271 1.21591256166e-288 1.78283261793e-307 0.0 
			1.03111685956e-235 2.26669162235e-237 2.9199424757e-242 3.75514216659e-250 1.02977918006e-260 1.41372181176e-273 2.25262813314e-288 8.93316047081e-305 1.67982319586e-322 0.0 
			5.26763325226e-259 1.75675781821e-260 7.47414569587e-265 5.96288355926e-272 1.57027447421e-281 2.64507368239e-293 5.63463148382e-307 2.91498731046e-322 0.0 0.0 
			1.15772893245e-282 5.42135672704e-284 6.15555734342e-288 2.25524313626e-294 4.09481266428e-303 6.18230930512e-314 0.0 0.0 0.0 0.0 
			1.74623558596e-144 0.0 0.0 0.0 0.0 0.0 0.0 0.0 0.0 0.0 
			1.42254593199e-147 3.56093790593e-151 1.68205960586e-160 4.62251879985e-174 1.01308188464e-190 1.45880199709e-209 6.29958828662e-230 2.29847722298e-251 1.42372395849e-273 2.40428020852e-296 
			2.48312340273e-156 2.69129536938e-159 1.20875174471e-167 2.89062089081e-180 4.56060747356e-196 3.678153869e-214 6.86724937971e-234 8.57847424353e-255 1.49376349278e-276 6.03194058259e-299 
			1.41101869796e-169 3.74424022788e-172 1.46337682597e-179 4.9745538326e-191 1.13277728544e-205 1.06327541905e-222 1.71872290929e-241 1.37899483166e-261 1.17866351977e-282 1.85593351731e-304 
			4.6491278631e-186 2.59348962468e-188 7.2969719577e-195 3.58013561817e-205 1.4584720851e-218 2.24029803607e-234 4.67716593275e-252 3.64473333374e-271 2.28281703904e-291 2.03892373e-312 
			8.74056547405e-205 9.11751248179e-207 1.43677885508e-212 8.20428564079e-222 5.46947762711e-234 1.43654826437e-248 4.47914096608e-265 4.1761723253e-283 2.43867006717e-302 1.58101006669e-322 
			4.64822441583e-225 8.16426641946e-227 5.56247199756e-232 2.74995665487e-240 2.36781525345e-251 9.28794670726e-265 4.17975595778e-280 4.8858718719e-297 2.94942680847e-315 0.0 
			2.03993186016e-246 5.51864381239e-248 1.28730729117e-252 4.08761307509e-260 3.41836122434e-270 1.60431836049e-282 9.05168083675e-297 1.24448300725e-312 0.0 0.0 
			1.50526689251e-268 5.83157333398e-270 3.82403454151e-274 5.96025404564e-281 3.65250726247e-290 1.59820681522e-301 9.32164521477e-315 0.0 0.0 0.0 
			3.01459267455e-291 1.57744824481e-292 2.47347263515e-296 1.50330614902e-302 5.22553851269e-311 1.66994188294e-321 0.0 0.0 0.0 0.0 
			3.44486986806e-169 0.0 0.0 0.0 0.0 0.0 0.0 0.0 0.0 0.0 
			1.12854462887e-171 1.03072881947e-174 1.46021442073e-182 3.55121263975e-194 8.33077210977e-209 9.4033638614e-226 1.92541976292e-244 1.96812151942e-264 2.11434168393e-285 4.10045849712e-307 
			7.45414627909e-179 2.33634307317e-181 1.78699136146e-188 1.97363184554e-199 1.88801721425e-213 7.71557235976e-230 4.98030239297e-248 1.3931986714e-267 3.59040051923e-288 1.48665501144e-309 
			4.85796272715e-190 2.8764822382e-192 9.99151121807e-199 7.16106367983e-209 4.80135306413e-222 1.27603466113e-237 4.59811439238e-255 5.99044752552e-274 5.99918337224e-294 8.16934844836e-315 
			2.13392711769e-204 2.1326776601e-206 3.0208275428e-212 1.51746467212e-221 8.97870301873e-234 2.1364489357e-248 6.16378828949e-265 5.41271471085e-283 3.01823525033e-302 1.8774494542e-322 
			3.70474773467e-221 5.87710241338e-223 3.01389545303e-228 9.84594645937e-237 5.21593978443e-248 1.23007594964e-261 3.35986352167e-277 2.45199695887e-294 9.5893466479e-313 0.0 
			1.04902521319e-239 2.49534401275e-241 4.03404493831e-246 7.35698302781e-254 3.12041782155e-264 6.96701299853e-277 1.83996134921e-291 1.20419055927e-307 0.0 0.0 
			1.39821404011e-259 4.72545976812e-261 2.09066875627e-265 1.77568697639e-272 5.0765343831e-282 9.41959151718e-294 2.23091167655e-307 1.28457067919e-322 0.0 0.0 
			1.89317427929e-280 8.66034353736e-282 9.19142532923e-286 3.03366112256e-292 4.82917640052e-301 6.28447421917e-312 0.0 0.0 0.0 0.0 
			4.53108768874e-302 2.69031081996e-303 6.0962147063e-307 6.6171722446e-313 4.86160595508e-321 0.0 0.0 0.0 0.0 0.0 
			5.77201883373e-194 0.0 0.0 0.0 0.0 0.0 0.0 0.0 0.0 0.0 
			4.83730141303e-196 1.08068185335e-198 1.7699645085e-205 1.35100769783e-215 1.51071592888e-228 8.08550521528e-244 6.15647421739e-261 1.65915234352e-279 3.26372265851e-299 8.20445411484e-320 
			4.14381753473e-202 2.83194321359e-204 1.85955177678e-210 4.41561247883e-220 1.39061799939e-232 1.96473817685e-247 3.67107987534e-264 2.23606190703e-282 9.13779623209e-302 4.39718424799e-322 
			9.78748123867e-212 1.09431623524e-213 2.23540381741e-219 2.10237001888e-228 2.81913525197e-240 1.67021334413e-254 1.21808482924e-270 2.61146499941e-288 3.34552940125e-307 0.0 
			2.35316361051e-224 3.86743277794e-226 2.22498879902e-231 8.90985956178e-240 6.25251215365e-251 2.05594584757e-264 8.01325994272e-280 8.35513000579e-297 4.60847938577e-315 0.0 
			2.17525868207e-239 5.05344075955e-241 7.67475850332e-246 1.2887448643e-253 5.01939904193e-264 1.0369702147e-276 2.56338608823e-291 1.58880145923e-307 0.0 0.0 
			2.5074410058e-256 7.97879058574e-258 2.97357469903e-262 1.94893572678e-269 4.056712846e-279 5.31543739256e-291 8.81151663617e-305 3.56665989733e-320 0.0 0.0 
			9.43371747823e-275 3.98362477679e-276 3.35549039923e-280 7.74089810319e-287 7.83619810309e-296 6.10353968576e-307 6.60763394748e-320 0.0 0.0 0.0 
			2.46063658817e-294 1.33682080093e-295 2.33927583541e-299 1.6917640034e-305 7.37356701674e-314 4.94065645841e-324 0.0 0.0 0.0 0.0 
			7.92691350409e-315 5.38282031053e-316 1.80556290273e-319 0.0 0.0 0.0 0.0 0.0 0.0 0.0 
			8.64061853744e-219 0.0 0.0 0.0 0.0 0.0 0.0 0.0 0.0 0.0 
			1.42321588975e-220 6.10494968108e-223 6.23184001892e-229 6.99596179737e-238 1.86480989551e-249 2.79613004031e-263 5.6131931154e-279 3.30122772148e-296 1.10503095418e-314 0.0 
			8.08849664487e-226 9.97094403027e-228 3.44925855168e-233 9.58681383796e-242 5.65007215765e-253 1.78764359728e-266 7.2728183113e-282 8.27119465511e-299 5.08151753844e-317 0.0 
			3.05643404915e-234 5.66672905587e-236 4.85332450547e-241 3.89885748408e-249 6.9613072572e-260 6.6968344647e-273 8.03715469726e-288 2.55035889304e-304 4.0513382959e-322 0.0 
			1.91323296728e-245 4.77391333251e-247 9.04011545224e-252 2.20011686153e-259 1.41040782938e-269 5.22620305891e-282 2.41857966145e-296 2.82887924299e-312 0.0 0.0 
			5.37137905648e-259 1.74758127519e-260 6.98298280187e-265 5.16731054375e-272 1.27592848118e-281 2.06326732592e-293 4.33172181216e-307 2.27270197087e-322 0.0 0.0 
			1.74771262849e-274 7.27469827756e-276 5.89098283215e-280 1.28594475156e-286 1.22440595361e-295 8.9822583497e-307 9.20888957283e-320 0.0 0.0 0.0 
			1.51622963567e-291 7.92624775927e-293 1.24119614793e-296 7.55976753355e-303 2.65317932126e-311 8.64614880222e-322 0.0 0.0 0.0 0.0 
			7.02840337137e-310 4.52620678879e-311 1.30086850861e-314 2.05926561187e-320 0.0 0.0 0.0 0.0 0.0 0.0 
			0.0 0.0 0.0 0.0 0.0 0.0 0.0 0.0 0.0 0.0 
			1.19108445018e-243 0.0 0.0 0.0 0.0 0.0 0.0 0.0 0.0 0.0 
			3.26389097626e-245 2.29847722298e-247 9.63877366003e-253 9.16333553325e-261 3.33023320395e-271 8.66034353736e-284 3.18340180491e-298 3.18587649872e-314 0.0 0.0 
			7.90441042635e-250 1.5422037856e-251 1.9811879552e-256 4.0395002934e-264 2.76286495624e-274 1.29373300653e-286 8.34630514117e-301 1.42701094123e-316 0.0 0.0 
			2.6637315804e-257 7.42230178193e-259 2.04499702353e-263 9.80747113805e-271 1.60796106159e-280 1.81242462268e-292 2.78253406609e-306 1.10176639023e-321 0.0 0.0 
			2.40842702802e-267 8.5253970021e-269 4.42058392998e-273 5.08195100947e-280 2.28281703904e-289 7.53087220903e-301 3.44735400026e-314 0.0 0.0 0.0 
			1.24071069567e-279 5.41271471085e-281 5.05364455676e-285 1.39847578911e-291 1.83859184791e-300 1.9911728116e-311 4.94065645841e-324 0.0 0.0 0.0 
			7.77682674779e-294 4.12568873916e-295 6.76050716435e-299 4.45205450574e-305 1.74522296253e-313 4.94065645841e-324 0.0 0.0 0.0 0.0 
			1.19901458597e-309 7.64928947305e-311 2.14140832485e-314 3.26231545949e-320 0.0 0.0 0.0 0.0 0.0 0.0 
			0.0 0.0 0.0 0.0 0.0 0.0 0.0 0.0 0.0 0.0 
			0.0 0.0 0.0 0.0 0.0 0.0 0.0 0.0 0.0 0.0 
			1.541638612e-268 0.0 0.0 0.0 0.0 0.0 0.0 0.0 0.0 0.0 
			6.28386895867e-270 6.52920441417e-272 8.39945873908e-277 4.50039538674e-284 1.43365619568e-293 4.28157395347e-305 2.03999705168e-318 0.0 0.0 0.0 
			4.77581947335e-274 1.34391339825e-275 4.96844657856e-280 5.19820606983e-287 2.79231871702e-296 1.34073230925e-307 1.00641172058e-320 0.0 0.0 0.0 
			9.37760435285e-281 3.64532026326e-282 2.63159182285e-286 5.63810784064e-293 6.16449477732e-302 6.00903350821e-313 0.0 0.0 0.0 0.0 
			7.7260713038e-290 3.67015986094e-291 4.46770994724e-295 1.94828476913e-301 4.80147381503e-310 1.11510616266e-320 0.0 0.0 0.0 0.0 
			4.75655461213e-301 2.67598372092e-302 5.237235583e-306 4.63659992918e-312 2.72230170859e-320 0.0 0.0 0.0 0.0 0.0 
			4.01299996185e-314 2.64383373829e-315 8.1531701008e-319 0.0 0.0 0.0 0.0 0.0 0.0 0.0 
			0.0 0.0 0.0 0.0 0.0 0.0 0.0 0.0 0.0 0.0 
			0.0 0.0 0.0 0.0 0.0 0.0 0.0 0.0 0.0 0.0 
			0.0 0.0 0.0 0.0 0.0 0.0 0.0 0.0 0.0 0.0 
	END_DATAGRID_3D
END_BLOCK_DATAGRID_3D
